# Converted from POSCAR to lammps format

96 atoms
6 atom types

0.000000   12.691105   xlo xhi
0.000000   12.404896   ylo yhi
0.000000   12.624606   zlo zhi

  0.405718    0.433237    0.320832   xy xz yz

Atoms

   1  1      -0.000219 0.274647 0.103965
   2  1      6.382643 0.209031 -0.047086
   3  1      12.798794 6.338495 0.053534
   4  1      6.510830 6.501019 -0.024785
   5  1      0.132883 0.436144 6.376536
   6  1      6.487544 0.464371 6.375417
   7  1      12.892803 6.649116 6.347019
   8  1      6.527145 6.610953 6.212472
   9  2      3.189368 0.758789 0.107348
  10  2      -0.040799 0.918207 3.225524
  11  2      9.512590 -0.112877 0.286522
  12  2      7.146267 3.661554 12.140308
  13  2      6.627093 1.101971 3.236130
  14  2      3.311283 5.857282 -0.109726
  15  2      0.902405 9.505693 0.212647
  16  2      0.376752 6.179555 3.190862
  17  2      9.644776 7.095939 0.129003
  18  2      5.907945 9.567774 0.535455
  19  2      6.323957 5.919841 3.119754
  20  2      3.323129 0.178684 6.378442
  21  2      0.564280 3.551439 6.539071
  22  2      0.124979 0.255966 9.581594
  23  2      9.656619 0.888098 6.588579
  24  2      6.009713 3.546336 7.008125
  25  2      6.944583 12.398251 9.565950
  26  2      3.390440 6.959791 6.531979
  27  2      0.118344 9.771440 6.036733
  28  2      0.412152 7.016911 9.524757
  29  2      9.698103 5.892215 6.049269
  30  2      7.084248 9.710275 5.519120
  31  2      6.713940 7.315417 9.429805
  32  3      12.511980 3.338735 -0.174619
  33  4      10.061176 3.681138 9.883182
  34  4      3.146415 3.430653 3.815748
  35  4      3.253430 9.594083 3.694211
  36  4      9.916505 9.494120 9.338049
  37  4      2.872038 3.450628 9.387255
  38  4      3.614580 10.069513 9.088076
  39  4      9.740416 3.796496 2.417738
  40  4      10.385105 9.610455 3.362146
  41  5      9.045807 3.788994 9.055415
  42  5      11.325913 3.716746 9.549039
  43  5      3.857492 3.319865 2.512811
  44  5      3.842858 10.717868 3.350135
  45  5      3.210563 8.513219 2.950274
  46  5      9.654234 9.959011 8.137750
  47  5      10.787481 10.007101 10.174850
  48  5      4.190580 3.489526 10.074978
  49  5      3.473970 8.885336 9.977560
  50  5      9.746102 3.029705 3.691848
  51  5      9.119668 9.680472 2.581544
  52  6      9.819659 3.551331 10.943179
  53  6      12.020273 3.645763 10.306566
  54  6      9.160860 3.973719 8.053316
  55  6      8.097960 3.741934 9.431963
  56  6      11.666554 3.778961 8.578263
  57  6      2.089583 3.644350 3.625516
  58  6      3.812563 4.203867 1.964079
  59  6      4.860089 3.078666 2.656511
  60  6      3.597713 4.244145 4.395618
  61  6      3.249666 2.482352 4.357431
  62  6      3.458801 2.565476 1.908515
  63  6      2.750246 9.560371 4.666270
  64  6      3.639531 8.482567 2.022503
  65  6      4.360166 10.804650 2.470055
  66  6      3.881054 11.477764 4.041294
  67  6      2.642936 7.712291 3.246133
  68  6      9.356456 8.612107 9.666890
  69  6      11.387885 10.815521 9.950155
  70  6      10.083059 10.814213 7.761297
  71  6      8.915371 9.534818 7.569169
  72  6      10.928200 9.539877 11.073440
  73  6      2.832950 2.558544 8.752686
  74  6      4.963255 3.501942 9.371026
  75  6      4.275143 4.330958 10.683281
  76  6      2.769719 4.349487 8.768485
  77  6      2.082910 3.415250 10.148431
  78  6      4.311640 2.662797 10.698707
  79  6      2.681251 10.644614 9.115257
  80  6      2.704130 8.255994 9.653286
  81  6      4.357990 8.329212 9.994073
  82  6      3.812159 9.715052 8.070853
  83  6      4.449749 10.685416 9.442538
  84  6      3.222496 9.164201 10.947992
  85  6      9.732369 3.088233 1.582581
  86  6      10.581552 2.399701 3.743675
  87  6      9.764759 3.673076 4.512740
  88  6      10.644959 4.413058 2.381421
  89  6      8.845700 4.429672 2.395743
  90  6      8.897471 2.428595 3.769520
  91  6      10.467837 10.509456 3.981737
  92  6      9.121365 10.526982 1.966356
  93  6      9.023304 8.853566 1.953967
  94  6      11.232166 9.554352 2.667797
  95  6      10.358867 8.719518 3.999787
  96  6      8.297048 9.719433 3.224911
